# vtk DataFile Version 3.0
#This file was generated by the deal.II library on 2022/10/30 at 1:19:22
ASCII
DATASET UNSTRUCTURED_GRID

POINTS 6400 double
44 0 0
43.9783 1.38207 0
41.25 0 0
41.2296 1.29569 0
43.9783 1.38207 0
43.9132 2.76278 0
41.2296 1.29569 0
41.1686 2.59011 0
41.25 0 0
41.2296 1.29569 0
38.5 0 0
38.481 1.20931 0
41.2296 1.29569 0
41.1686 2.59011 0
38.481 1.20931 0
38.424 2.41744 0
43.9132 2.76278 0
43.8047 4.14077 0
41.1686 2.59011 0
41.0669 3.88197 0
43.8047 4.14077 0
43.653 5.51466 0
41.0669 3.88197 0
40.9247 5.17 0
41.1686 2.59011 0
41.0669 3.88197 0
38.424 2.41744 0
38.3291 3.62317 0
41.0669 3.88197 0
40.9247 5.17 0
38.3291 3.62317 0
38.1964 4.82533 0
38.5 0 0
38.481 1.20931 0
35.75 0 0
35.7324 1.12293 0
38.481 1.20931 0
38.424 2.41744 0
35.7324 1.12293 0
35.6795 2.24476 0
35.75 0 0
35.7324 1.12293 0
33 0 0
32.9837 1.03656 0
35.7324 1.12293 0
35.6795 2.24476 0
32.9837 1.03656 0
32.9349 2.07209 0
38.424 2.41744 0
38.3291 3.62317 0
35.6795 2.24476 0
35.5913 3.36437 0
38.3291 3.62317 0
38.1964 4.82533 0
35.5913 3.36437 0
35.4681 4.48066 0
35.6795 2.24476 0
35.5913 3.36437 0
32.9349 2.07209 0
32.8535 3.10557 0
35.5913 3.36437 0
35.4681 4.48066 0
32.8535 3.10557 0
32.7398 4.136 0
43.653 5.51466 0
43.4583 6.88312 0
40.9247 5.17 0
40.7421 6.45292 0
43.4583 6.88312 0
43.2206 8.24478 0
40.7421 6.45292 0
40.5193 7.72948 0
40.9247 5.17 0
40.7421 6.45292 0
38.1964 4.82533 0
38.026 6.02273 0
40.7421 6.45292 0
40.5193 7.72948 0
38.026 6.02273 0
37.8181 7.21418 0
43.2206 8.24478 0
42.9403 9.5983 0
40.5193 7.72948 0
40.2566 8.99841 0
42.9403 9.5983 0
42.6177 10.9424 0
40.2566 8.99841 0
39.9541 10.2585 0
40.5193 7.72948 0
40.2566 8.99841 0
37.8181 7.21418 0
37.5728 8.39851 0
40.2566 8.99841 0
39.9541 10.2585 0
37.5728 8.39851 0
37.2905 9.57456 0
38.1964 4.82533 0
38.026 6.02273 0
35.4681 4.48066 0
35.3099 5.59253 0
38.026 6.02273 0
37.8181 7.21418 0
35.3099 5.59253 0
35.1168 6.69888 0
35.4681 4.48066 0
35.3099 5.59253 0
32.7398 4.136 0
32.5937 5.16234 0
35.3099 5.59253 0
35.1168 6.69888 0
32.5937 5.16234 0
32.4155 6.18358 0
37.8181 7.21418 0
37.5728 8.39851 0
35.1168 6.69888 0
34.889 7.79862 0
37.5728 8.39851 0
37.2905 9.57456 0
34.889 7.79862 0
34.6268 8.89066 0
35.1168 6.69888 0
34.889 7.79862 0
32.4155 6.18358 0
32.2053 7.19873 0
34.889 7.79862 0
34.6268 8.89066 0
32.2053 7.19873 0
31.9632 8.20677 0
33 0 0
32.9837 1.03656 0
30.25 0 0
30.2351 0.950175 0
32.9837 1.03656 0
32.9349 2.07209 0
30.2351 0.950175 0
30.1903 1.89941 0
30.25 0 0
30.2351 0.950175 0
27.5 0 0
27.4864 0.863796 0
30.2351 0.950175 0
30.1903 1.89941 0
27.4864 0.863796 0
27.4457 1.72674 0
32.9349 2.07209 0
32.8535 3.10557 0
30.1903 1.89941 0
30.1157 2.84678 0
32.8535 3.10557 0
32.7398 4.136 0
30.1157 2.84678 0
30.0115 3.79133 0
30.1903 1.89941 0
30.1157 2.84678 0
27.4457 1.72674 0
27.378 2.58798 0
30.1157 2.84678 0
30.0115 3.79133 0
27.378 2.58798 0
27.2832 3.44666 0
27.5 0 0
27.4864 0.863796 0
24.75 0 0
24.7378 0.777416 0
27.4864 0.863796 0
27.4457 1.72674 0
24.7378 0.777416 0
24.7012 1.55407 0
24.75 0 0
24.7378 0.777416 0
22 0 0
21.9891 0.691037 0
24.7378 0.777416 0
24.7012 1.55407 0
21.9891 0.691037 0
21.9566 1.38139 0
27.4457 1.72674 0
27.378 2.58798 0
24.7012 1.55407 0
24.6402 2.32918 0
27.378 2.58798 0
27.2832 3.44666 0
24.6402 2.32918 0
24.5548 3.102 0
24.7012 1.55407 0
24.6402 2.32918 0
21.9566 1.38139 0
21.9024 2.07038 0
24.6402 2.32918 0
24.5548 3.102 0
21.9024 2.07038 0
21.8265 2.75733 0
32.7398 4.136 0
32.5937 5.16234 0
30.0115 3.79133 0
29.8776 4.73214 0
32.5937 5.16234 0
32.4155 6.18358 0
29.8776 4.73214 0
29.7142 5.66828 0
30.0115 3.79133 0
29.8776 4.73214 0
27.2832 3.44666 0
27.1614 4.30195 0
29.8776 4.73214 0
29.7142 5.66828 0
27.1614 4.30195 0
27.0129 5.15299 0
32.4155 6.18358 0
32.2053 7.19873 0
29.7142 5.66828 0
29.5215 6.59883 0
32.2053 7.19873 0
31.9632 8.20677 0
29.5215 6.59883 0
29.2996 7.52287 0
29.7142 5.66828 0
29.5215 6.59883 0
27.0129 5.15299 0
26.8377 5.99894 0
29.5215 6.59883 0
29.2996 7.52287 0
26.8377 5.99894 0
26.636 6.83897 0
27.2832 3.44666 0
27.1614 4.30195 0
24.5548 3.102 0
24.4453 3.87175 0
27.1614 4.30195 0
27.0129 5.15299 0
24.4453 3.87175 0
24.3116 4.63769 0
24.5548 3.102 0
24.4453 3.87175 0
21.8265 2.75733 0
21.7291 3.44156 0
24.4453 3.87175 0
24.3116 4.63769 0
21.7291 3.44156 0
21.6103 4.12239 0
27.0129 5.15299 0
26.8377 5.99894 0
24.3116 4.63769 0
24.1539 5.39905 0
26.8377 5.99894 0
26.636 6.83897 0
24.1539 5.39905 0
23.9724 6.15507 0
24.3116 4.63769 0
24.1539 5.39905 0
21.6103 4.12239 0
21.4702 4.79915 0
24.1539 5.39905 0
23.9724 6.15507 0
21.4702 4.79915 0
21.3088 5.47118 0
42.6177 10.9424 0
42.2529 12.2756 0
39.9541 10.2585 0
39.6121 11.5084 0
42.2529 12.2756 0
41.8465 13.5967 0
39.6121 11.5084 0
39.2311 12.747 0
39.9541 10.2585 0
39.6121 11.5084 0
37.2905 9.57456 0
36.9713 10.7412 0
39.6121 11.5084 0
39.2311 12.747 0
36.9713 10.7412 0
36.6157 11.8972 0
41.8465 13.5967 0
41.3988 14.9045 0
39.2311 12.747 0
38.8113 13.9729 0
41.3988 14.9045 0
40.9102 16.1975 0
38.8113 13.9729 0
38.3533 15.1851 0
39.2311 12.747 0
38.8113 13.9729 0
36.6157 11.8972 0
36.2239 13.0414 0
38.8113 13.9729 0
38.3533 15.1851 0
36.2239 13.0414 0
35.7964 14.1728 0
37.2905 9.57456 0
36.9713 10.7412 0
34.6268 8.89066 0
34.3305 9.97393 0
36.9713 10.7412 0
36.6157 11.8972 0
34.3305 9.97393 0
34.0003 11.0474 0
34.6268 8.89066 0
34.3305 9.97393 0
31.9632 8.20677 0
31.6897 9.20671 0
34.3305 9.97393 0
34.0003 11.0474 0
31.6897 9.20671 0
31.3849 10.1976 0
36.6157 11.8972 0
36.2239 13.0414 0
34.0003 11.0474 0
33.6365 12.1099 0
36.2239 13.0414 0
35.7964 14.1728 0
33.6365 12.1099 0
33.2395 13.1605 0
34.0003 11.0474 0
33.6365 12.1099 0
31.3849 10.1976 0
31.0491 11.1784 0
33.6365 12.1099 0
33.2395 13.1605 0
31.0491 11.1784 0
30.6826 12.1481 0
40.9102 16.1975 0
40.3812 17.4745 0
38.3533 15.1851 0
37.8574 16.3824 0
40.3812 17.4745 0
39.8124 18.7343 0
37.8574 16.3824 0
37.3241 17.5634 0
38.3533 15.1851 0
37.8574 16.3824 0
35.7964 14.1728 0
35.3336 15.2902 0
37.8574 16.3824 0
37.3241 17.5634 0
35.3336 15.2902 0
34.8358 16.3925 0
39.8124 18.7343 0
39.2043 19.9756 0
37.3241 17.5634 0
36.754 18.7271 0
39.2043 19.9756 0
38.5575 21.1972 0
36.754 18.7271 0
36.1477 19.8723 0
37.3241 17.5634 0
36.754 18.7271 0
34.8358 16.3925 0
34.3038 17.4786 0
36.754 18.7271 0
36.1477 19.8723 0
34.3038 17.4786 0
33.7378 18.5475 0
35.7964 14.1728 0
35.3336 15.2902 0
33.2395 13.1605 0
32.8097 14.198 0
35.3336 15.2902 0
34.8358 16.3925 0
32.8097 14.198 0
32.3476 15.2216 0
33.2395 13.1605 0
32.8097 14.198 0
30.6826 12.1481 0
30.2859 13.1059 0
32.8097 14.198 0
32.3476 15.2216 0
30.2859 13.1059 0
29.8593 14.0507 0
34.8358 16.3925 0
34.3038 17.4786 0
32.3476 15.2216 0
31.8535 16.2302 0
34.3038 17.4786 0
33.7378 18.5475 0
31.8535 16.2302 0
31.328 17.2227 0
32.3476 15.2216 0
31.8535 16.2302 0
29.8593 14.0507 0
29.4032 14.9817 0
31.8535 16.2302 0
31.328 17.2227 0
29.4032 14.9817 0
28.9181 15.8979 0
31.9632 8.20677 0
31.6897 9.20671 0
29.2996 7.52287 0
29.0489 8.43948 0
31.6897 9.20671 0
31.3849 10.1976 0
29.0489 8.43948 0
28.7695 9.34776 0
29.2996 7.52287 0
29.0489 8.43948 0
26.636 6.83897 0
26.4081 7.67226 0
29.0489 8.43948 0
28.7695 9.34776 0
26.4081 7.67226 0
26.1541 8.49797 0
31.3849 10.1976 0
31.0491 11.1784 0
28.7695 9.34776 0
28.4616 10.2468 0
31.0491 11.1784 0
30.6826 12.1481 0
28.4616 10.2468 0
28.1257 11.1358 0
28.7695 9.34776 0
28.4616 10.2468 0
26.1541 8.49797 0
25.8742 9.31529 0
28.4616 10.2468 0
28.1257 11.1358 0
25.8742 9.31529 0
25.5689 10.1234 0
26.636 6.83897 0
26.4081 7.67226 0
23.9724 6.15507 0
23.7673 6.90503 0
26.4081 7.67226 0
26.1541 8.49797 0
23.7673 6.90503 0
23.5386 7.64817 0
23.9724 6.15507 0
23.7673 6.90503 0
21.3088 5.47118 0
21.1265 6.1378 0
23.7673 6.90503 0
23.5386 7.64817 0
21.1265 6.1378 0
20.9232 6.79837 0
26.1541 8.49797 0
25.8742 9.31529 0
23.5386 7.64817 0
23.2868 8.38376 0
25.8742 9.31529 0
25.5689 10.1234 0
23.2868 8.38376 0
23.012 9.11108 0
23.5386 7.64817 0
23.2868 8.38376 0
20.9232 6.79837 0
20.6994 7.45223 0
23.2868 8.38376 0
23.012 9.11108 0
20.6994 7.45223 0
20.4551 8.09874 0
30.6826 12.1481 0
30.2859 13.1059 0
28.1257 11.1358 0
27.7621 12.0137 0
30.2859 13.1059 0
29.8593 14.0507 0
27.7621 12.0137 0
27.371 12.8798 0
28.1257 11.1358 0
27.7621 12.0137 0
25.5689 10.1234 0
25.2383 10.9216 0
27.7621 12.0137 0
27.371 12.8798 0
25.2383 10.9216 0
24.8827 11.7089 0
29.8593 14.0507 0
29.4032 14.9817 0
27.371 12.8798 0
26.9529 13.7332 0
29.4032 14.9817 0
28.9181 15.8979 0
26.9529 13.7332 0
26.5083 14.573 0
27.371 12.8798 0
26.9529 13.7332 0
24.8827 11.7089 0
24.5027 12.4847 0
26.9529 13.7332 0
26.5083 14.573 0
24.5027 12.4847 0
24.0984 13.2482 0
25.5689 10.1234 0
25.2383 10.9216 0
23.012 9.11108 0
22.7144 9.82941 0
25.2383 10.9216 0
24.8827 11.7089 0
22.7144 9.82941 0
22.3945 10.538 0
23.012 9.11108 0
22.7144 9.82941 0
20.4551 8.09874 0
20.1906 8.73725 0
22.7144 9.82941 0
22.3945 10.538 0
20.1906 8.73725 0
19.9062 9.36714 0
24.8827 11.7089 0
24.5027 12.4847 0
22.3945 10.538 0
22.0524 11.2363 0
24.5027 12.4847 0
24.0984 13.2482 0
22.0524 11.2363 0
21.6886 11.9234 0
22.3945 10.538 0
22.0524 11.2363 0
19.9062 9.36714 0
19.6021 9.98779 0
22.0524 11.2363 0
21.6886 11.9234 0
19.6021 9.98779 0
19.2787 10.5986 0
38.5575 21.1972 0
37.8726 22.3978 0
36.1477 19.8723 0
35.5056 20.998 0
37.8726 22.3978 0
37.1504 23.5764 0
35.5056 20.998 0
34.8285 22.1029 0
36.1477 19.8723 0
35.5056 20.998 0
33.7378 18.5475 0
33.1386 19.5981 0
35.5056 20.998 0
34.8285 22.1029 0
33.1386 19.5981 0
32.5066 20.6293 0
37.1504 23.5764 0
36.3915 24.7317 0
34.8285 22.1029 0
34.1171 23.1859 0
36.3915 24.7317 0
35.5967 25.8626 0
34.1171 23.1859 0
33.372 24.2461 0
34.8285 22.1029 0
34.1171 23.1859 0
32.5066 20.6293 0
31.8426 21.6402 0
34.1171 23.1859 0
33.372 24.2461 0
31.8426 21.6402 0
31.1472 22.6297 0
33.7378 18.5475 0
33.1386 19.5981 0
31.328 17.2227 0
30.7715 18.1982 0
33.1386 19.5981 0
32.5066 20.6293 0
30.7715 18.1982 0
30.1847 19.1558 0
31.328 17.2227 0
30.7715 18.1982 0
28.9181 15.8979 0
28.4045 16.7984 0
30.7715 18.1982 0
30.1847 19.1558 0
28.4045 16.7984 0
[...]
POINT_DATA 6400
SCALARS solution double 1
LOOKUP_TABLE default
1100 1100 3.36539e+06 3.14616e+06 1100 1100 3.14616e+06 2.93034e+06 3.36539e+06 3.14616e+06 5.61698e+06 5.25952e+06 3.14616e+06 2.93034e+06 5.25952e+06 4.90761e+06 1100 1100 2.93034e+06 2.71877e+06 1100 1100 2.71877e+06 2.5123e+06 2.93034e+06 2.71877e+06 4.90761e+06 4.56264e+06 2.71877e+06 2.5123e+06 4.56264e+06 4.22598e+06 5.61698e+06 5.25952e+06 6.84889e+06 6.4229e+06 5.25952e+06 4.90761e+06 6.4229e+06 6.00353e+06 6.84889e+06 6.4229e+06 7.14153e+06 6.70678e+06 6.4229e+06 6.00353e+06 6.70678e+06 6.2788e+06 4.90761e+06 4.56264e+06 6.00353e+06 5.59244e+06 4.56264e+06 4.22598e+06 5.59244e+06 5.19123e+06 6.00353e+06 5.59244e+06 6.2788e+06 5.85925e+06 5.59244e+06 5.19123e+06 5.85925e+06 5.44981e+06 1100 1100 2.5123e+06 2.31174e+06 1100 1100 2.31174e+06 2.11787e+06 2.5123e+06 2.31174e+06 4.22598e+06 3.89895e+06 2.31174e+06 2.11787e+06 3.89895e+06 3.58284e+06 1100 1100 2.11787e+06 1.93147e+06 1100 1100 1.93147e+06 1.75327e+06 2.11787e+06 1.93147e+06 3.58284e+06 3.27891e+06 1.93147e+06 1.75327e+06 3.27891e+06 2.98834e+06 4.22598e+06 3.89895e+06 5.19123e+06 4.80151e+06 3.89895e+06 3.58284e+06 4.80151e+06 4.42481e+06 5.19123e+06 4.80151e+06 5.44981e+06 5.05208e+06 4.80151e+06 4.42481e+06 5.05208e+06 4.66763e+06 3.58284e+06 3.27891e+06 4.42481e+06 4.0626e+06 3.27891e+06 2.98834e+06 4.0626e+06 3.71634e+06 4.42481e+06 4.0626e+06 4.66763e+06 4.29799e+06 4.0626e+06 3.71634e+06 4.29799e+06 3.9446e+06 7.14153e+06 6.70678e+06 6.56137e+06 6.16935e+06 6.70678e+06 6.2788e+06 6.16935e+06 5.78342e+06 6.56137e+06 6.16935e+06 5.15929e+06 4.85528e+06 6.16935e+06 5.78342e+06 4.85528e+06 4.556e+06 6.2788e+06 5.85925e+06 5.78342e+06 5.4051e+06 5.85925e+06 5.44981e+06 5.4051e+06 5.03589e+06 5.78342e+06 5.4051e+06 4.556e+06 4.26262e+06 5.4051e+06 5.03589e+06 4.26262e+06 3.97631e+06 5.15929e+06 4.85528e+06 2.96832e+06 2.79447e+06 4.85528e+06 4.556e+06 2.79447e+06 2.62331e+06 2.96832e+06 2.79447e+06 1100 1100 2.79447e+06 2.62331e+06 1100 1100 4.556e+06 4.26262e+06 2.62331e+06 2.45554e+06 4.26262e+06 3.97631e+06 2.45554e+06 2.2918e+06 2.62331e+06 2.45554e+06 1100 1100 2.45554e+06 2.2918e+06 1100 1100 5.44981e+06 5.05208e+06 5.03589e+06 4.67724e+06 5.05208e+06 4.66763e+06 4.67724e+06 4.33057e+06 5.03589e+06 4.67724e+06 3.97631e+06 3.69818e+06 4.67724e+06 4.33057e+06 3.69818e+06 3.42935e+06 4.66763e+06 4.29799e+06 4.33057e+06 3.99725e+06 4.29799e+06 3.9446e+06 3.99725e+06 3.67859e+06 4.33057e+06 3.99725e+06 3.42935e+06 3.17087e+06 3.99725e+06 3.67859e+06 3.17087e+06 2.92375e+06 3.97631e+06 3.69818e+06 2.2918e+06 2.13275e+06 3.69818e+06 3.42935e+06 2.13275e+06 1.97901e+06 2.2918e+06 2.13275e+06 1100 1100 2.13275e+06 1.97901e+06 1100 1100 3.42935e+06 3.17087e+06 1.97901e+06 1.83119e+06 3.17087e+06 2.92375e+06 1.83119e+06 1.68987e+06 1.97901e+06 1.83119e+06 1100 1100 1.83119e+06 1.68987e+06 1100 1100 1100 1100 1.75327e+06 1.58397e+06 1100 1100 1.58397e+06 1.42424e+06 1.75327e+06 1.58397e+06 2.98834e+06 2.71229e+06 1.58397e+06 1.42424e+06 2.71229e+06 2.45185e+06 1100 1100 1.42424e+06 1.27472e+06 1100 1100 1.27472e+06 1.13598e+06 1.42424e+06 1.27472e+06 2.45185e+06 2.20804e+06 1.27472e+06 1.13598e+06 2.20804e+06 1.98183e+06 2.98834e+06 2.71229e+06 3.71634e+06 3.38737e+06 2.71229e+06 2.45185e+06 3.38737e+06 3.077e+06 3.71634e+06 3.38737e+06 3.9446e+06 3.60888e+06 3.38737e+06 3.077e+06 3.60888e+06 3.29213e+06 2.45185e+06 2.20804e+06 3.077e+06 2.78645e+06 2.20804e+06 1.98183e+06 2.78645e+06 2.51687e+06 3.077e+06 2.78645e+06 3.29213e+06 2.99561e+06 2.78645e+06 2.51687e+06 2.99561e+06 2.72049e+06 1100 1100 1.13598e+06 1.00859e+06 1100 1100 1.00859e+06 893035 1.13598e+06 1.00859e+06 1.98183e+06 1.77411e+06 1.00859e+06 893035 1.77411e+06 1.58569e+06 1100 1100 893035 789780 1100 1100 789780 699231 893035 789780 1.58569e+06 1.41733e+06 789780 699231 1.41733e+06 1.26969e+06 1.98183e+06 1.77411e+06 2.51687e+06 2.26933e+06 1.77411e+06 1.58569e+06 2.26933e+06 2.0448e+06 2.51687e+06 2.26933e+06 2.72049e+06 2.46786e+06 2.26933e+06 2.0448e+06 2.46786e+06 2.23872e+06 1.58569e+06 1.41733e+06 2.0448e+06 1.84416e+06 1.41733e+06 1.26969e+06 1.84416e+06 1.66821e+06 2.0448e+06 1.84416e+06 2.23872e+06 2.03396e+06 1.84416e+06 1.66821e+06 2.03396e+06 1.85439e+06 3.9446e+06 3.60888e+06 3.67859e+06 3.37586e+06 3.60888e+06 3.29213e+06 3.37586e+06 3.09023e+06 3.67859e+06 3.37586e+06 2.92375e+06 2.68899e+06 3.37586e+06 3.09023e+06 2.68899e+06 2.46749e+06 3.29213e+06 2.99561e+06 3.09023e+06 2.82285e+06 2.99561e+06 2.72049e+06 2.82285e+06 2.57477e+06 3.09023e+06 2.82285e+06 2.46749e+06 2.26014e+06 2.82285e+06 2.57477e+06 2.26014e+06 2.06776e+06 2.92375e+06 2.68899e+06 1.68987e+06 1.55562e+06 2.68899e+06 2.46749e+06 1.55562e+06 1.42895e+06 1.68987e+06 1.55562e+06 1100 1100 1.55562e+06 1.42895e+06 1100 1100 2.46749e+06 2.26014e+06 1.42895e+06 1.31037e+06 2.26014e+06 2.06776e+06 1.31037e+06 1.20035e+06 1.42895e+06 1.31037e+06 1100 1100 1.31037e+06 1.20035e+06 1100 1100 2.72049e+06 2.46786e+06 2.57477e+06 2.34697e+06 2.46786e+06 2.23872e+06 2.34697e+06 2.14034e+06 2.57477e+06 2.34697e+06 2.06776e+06 1.8911e+06 2.34697e+06 2.14034e+06 1.8911e+06 1.73087e+06 2.23872e+06 2.03396e+06 2.14034e+06 1.9557e+06 2.03396e+06 1.85439e+06 1.9557e+06 1.79378e+06 2.14034e+06 1.9557e+06 1.73087e+06 1.58768e+06 1.9557e+06 1.79378e+06 1.58768e+06 1.46212e+06 2.06776e+06 1.8911e+06 1.20035e+06 1.09933e+06 1.8911e+06 1.73087e+06 1.09933e+06 1.00769e+06 1.20035e+06 1.09933e+06 1100 1100 1.09933e+06 1.00769e+06 1100 1100 1.73087e+06 1.58768e+06 1.00769e+06 925807 1.58768e+06 1.46212e+06 925807 854000 1.00769e+06 925807 1100 1100 925807 854000 1100 1100 1100 1100 699231 621745 1100 1100 621745 557628 699231 621745 1.26969e+06 1.14334e+06 621745 557628 1.14334e+06 1.03879e+06 1100 1100 557628 507132 1100 1100 507132 470457 557628 507132 1.03879e+06 956459 507132 470457 956459 896659 1.26969e+06 1.14334e+06 1.66821e+06 1.51765e+06 1.14334e+06 1.03879e+06 1.51765e+06 1.39306e+06 1.66821e+06 1.51765e+06 1.85439e+06 1.70074e+06 1.51765e+06 1.39306e+06 1.70074e+06 1.57359e+06 1.03879e+06 956459 1.39306e+06 1.29494e+06 956459 896659 1.29494e+06 1.22368e+06 1.39306e+06 1.29494e+06 1.57359e+06 1.47345e+06 1.29494e+06 1.22368e+06 1.47345e+06 1.40072e+06 1100 1100 470457 447748 1100 1100 447748 439095 470457 447748 896659 859632 447748 439095 859632 845522 1100 1100 439095 444531 1100 1100 444531 464036 439095 444531 845522 854386 444531 464036 854386 886188 896659 859632 1.22368e+06 1.17955e+06 859632 845522 1.17955e+06 1.16274e+06 1.22368e+06 1.17955e+06 1.40072e+06 1.35569e+06 1.17955e+06 1.16274e+06 1.35569e+06 1.33853e+06 845522 854386 1.16274e+06 1.1733e+06 854386 886188 1.1733e+06 1.2112e+06 1.16274e+06 1.1733e+06 1.33853e+06 1.34931e+06 1.1733e+06 1.2112e+06 1.34931e+06 1.38799e+06 1.85439e+06 1.70074e+06 1.79378e+06 1.65522e+06 1.70074e+06 1.57359e+06 1.65522e+06 1.54057e+06 1.79378e+06 1.65522e+06 1.46212e+06 1.35467e+06 1.65522e+06 1.54057e+06 1.35467e+06 1.26576e+06 1.57359e+06 1.47345e+06 1.54057e+06 1.45027e+06 1.47345e+06 1.40072e+06 1.45027e+06 1.38469e+06 1.54057e+06 1.45027e+06 1.26576e+06 1.19573e+06 1.45027e+06 1.38469e+06 1.19573e+06 1.14488e+06 1.46212e+06 1.35467e+06 854000 792552 1.35467e+06 1.26576e+06 792552 741706 854000 792552 1100 1100 792552 741706 1100 1100 1.26576e+06 1.19573e+06 741706 701662 1.19573e+06 1.14488e+06 701662 672578 741706 701662 1100 1100 701662 672578 1100 1100 1.40072e+06 1.35569e+06 1.38469e+06 1.34408e+06 1.35569e+06 1.33853e+06 1.34408e+06 1.32861e+06 1.38469e+06 1.34408e+06 1.14488e+06 1.11339e+06 1.34408e+06 1.32861e+06 1.11339e+06 1.10139e+06 1.33853e+06 1.34931e+06 1.32861e+06 1.33833e+06 1.34931e+06 1.38799e+06 1.33833e+06 1.37321e+06 1.32861e+06 1.33833e+06 1.10139e+06 1.10892e+06 1.33833e+06 1.37321e+06 1.10892e+06 1.13597e+06 1.14488e+06 1.11339e+06 672578 654569 1.11339e+06 1.10139e+06 654569 647707 672578 654569 1100 1100 654569 647707 1100 1100 1.10139e+06 1.10892e+06 647707 652018 1.10892e+06 1.13597e+06 652018 667485 647707 652018 1100 1100 652018 667485 1100 1100 1100 1100 464036 497531 1100 1100 497531 544885 464036 497531 886188 940804 497531 544885 940804 1.01802e+06 1100 1100 544885 605912 1100 1100 605912 680369 544885 605912 1.01802e+06 1.11752e+06 605912 680369 1.11752e+06 1.23893e+06 886188 940804 1.2112e+06 1.27628e+06 940804 1.01802e+06 1.27628e+06 1.3683e+06 1.2112e+06 1.27628e+06 1.38799e+06 1.45441e+06 1.27628e+06 1.3683e+06 1.45441e+06 1.54832e+06 1.01802e+06 1.11752e+06 1.3683e+06 1.48688e+06 1.11752e+06 1.23893e+06 1.48688e+06 1.63156e+06 1.3683e+06 1.48688e+06 1.54832e+06 1.66934e+06 1.48688e+06 1.63156e+06 1.66934e+06 1.81699e+06 1100 1100 680369 767964 1100 1100 767964 868351 680369 767964 1.23893e+06 1.38176e+06 767964 868351 1.38176e+06 1.54544e+06 1100 1100 868351 981133 1100 1100 981133 1.10587e+06 868351 981133 1.54544e+06 1.72934e+06 981133 1.10587e+06 1.72934e+06 1.93272e+06 1.23893e+06 1.38176e+06 1.63156e+06 1.80177e+06 1.38176e+06 1.54544e+06 1.80177e+06 1.99683e+06 1.63156e+06 1.80177e+06 1.81699e+06 1.9907e+06 1.80177e+06 1.99683e+06 1.9907e+06 2.18977e+06 1.54544e+06 1.72934e+06 1.99683e+06 2.21598e+06 1.72934e+06 1.93272e+06 2.21598e+06 2.45835e+06 1.99683e+06 2.21598e+06 2.18977e+06 2.41342e+06 2.21598e+06 2.45835e+06 2.41342e+06 2.66077e+06 1.38799e+06 1.45441e+06 1.37321e+06 1.4331e+06 1.45441e+06 1.54832e+06 1.4331e+06 1.51778e+06 1.37321e+06 1.4331e+06 1.13597e+06 1.18242e+06 1.4331e+06 1.51778e+06 1.18242e+06 1.24809e+06 1.54832e+06 1.66934e+06 1.51778e+06 1.62691e+06 1.66934e+06 1.81699e+06 1.62691e+06 1.76005e+06 1.51778e+06 1.62691e+06 1.24809e+06 1.33271e+06 1.62691e+06 1.76005e+06 1.33271e+06 1.43596e+06 1.13597e+06 1.18242e+06 667485 694048 1.18242e+06 1.24809e+06 694048 731601 667485 694048 1100 1100 694048 731601 1100 1100 1.24809e+06 1.33271e+06 731601 779996 1.33271e+06 1.43596e+06 779996 839042 731601 779996 1100 1100 779996 839042 1100 1100 1.81699e+06 1.9907e+06 1.76005e+06 1.91669e+06 1.9907e+06 2.18977e+06 1.91669e+06 2.0962e+06 1.76005e+06 1.91669e+06 1.43596e+06 1.55743e+06 1.91669e+06 2.0962e+06 1.55743e+06 1.69664e+06 2.18977e+06 2.41342e+06 2.0962e+06 2.29787e+06 2.41342e+06 2.66077e+06 2.29787e+06 2.52092e+06 2.0962e+06 2.29787e+06 1.69664e+06 1.85303e+06 2.29787e+06 2.52092e+06 1.85303e+06 2.026e+06 1.43596e+06 1.55743e+06 839042 908507 1.55743e+06 1.69664e+06 908507 988116 839042 908507 1100 1100 908507 988116 1100 1100 1.69664e+06 1.85303e+06 988116 1.07755e+06 1.85303e+06 2.026e+06 1.07755e+06 1.17647e+06 988116 1.07755e+06 1100 1100 1.07755e+06 1.17647e+06 1100 1100 1100 1100 1.10587e+06 1.24206e+06 1100 1100 1.24206e+06 1.38917e+06 1.10587e+06 1.24206e+06 1.93272e+06 2.15479e+06 1.24206e+06 1.38917e+06 2.15479e+06 2.39466e+06 1100 1100 1.38917e+06 1.54662e+06 1100 1100 1.54662e+06 1.71379e+06 1.38917e+06 1.54662e+06 2.39466e+06 2.65139e+06 1.54662e+06 1.71379e+06 2.65139e+06 2.92397e+06 1.93272e+06 2.15479e+06 2.45835e+06 2.72299e+06 2.15479e+06 2.39466e+06 2.72299e+06 3.00884e+06 2.45835e+06 2.72299e+06 2.66077e+06 2.93084e+06 2.72299e+06 3.00884e+06 2.93084e+06 3.22257e+06 2.39466e+06 2.65139e+06 3.00884e+06 3.31479e+06 2.65139e+06 2.92397e+06 3.31479e+06 3.63962e+06 3.00884e+06 3.31479e+06 3.22257e+06 3.53481e+06 3.31479e+06 3.63962e+06 3.53481e+06 3.86631e+06 1100 1100 1.71379e+06 1.89002e+06 1100 1100 1.89002e+06 2.07461e+06 1.71379e+06 1.89002e+06 2.92397e+06 3.21132e+06 1.89002e+06 2.07461e+06 3.21132e+06 3.5123e+06 1100 1100 2.07461e+06 2.26684e+06 1100 1100 2.26684e+06 2.46594e+06 2.07461e+06 2.26684e+06 3.5123e+06 3.82574e+06 2.26684e+06 2.46594e+06 3.82574e+06 4.15039e+06 2.92397e+06 3.21132e+06 3.63962e+06 3.98206e+06 3.21132e+06 3.5123e+06 3.98206e+06 4.34074e+06 3.63962e+06 3.98206e+06 3.86631e+06 4.21579e+06 3.98206e+06 4.34074e+06 4.21579e+06 4.58184e+06 3.5123e+06 3.82574e+06 4.34074e+06 4.71427e+06 3.82574e+06 4.15039e+06 4.71427e+06 5.10115e+06 4.34074e+06 4.71427e+06 4.58184e+06 4.96304e+06 4.71427e+06 5.10115e+06 4.96304e+06 5.35787e+06 2.66077e+06 2.93084e+06 2.52092e+06 2.76445e+06 2.93084e+06 3.22257e+06 2.76445e+06 3.02751e+06 2.52092e+06 2.76445e+06 2.026e+06 2.21485e+06 2.76445e+06 3.02751e+06 2.21485e+06 2.41885e+06 3.22257e+06 3.53481e+06 3.02751e+06 3.30907e+06 3.53481e+06 3.86631e+06 3.30907e+06 3.608e+06 3.02751e+06 3.30907e+06 2.41885e+06 2.63719e+06 3.30907e+06 3.608e+06 2.63719e+06 2.86901e+06 2.026e+06 2.21485e+06 1.17647e+06 1.28447e+06 2.21485e+06 2.41885e+06 1.28447e+06 1.40113e+06 1.17647e+06 1.28447e+06 1100 1100 1.28447e+06 1.40113e+06 1100 1100 2.41885e+06 2.63719e+06 1.40113e+06 1.526e+06 2.63719e+06 2.86901e+06 1.526e+06 1.65856e+06 1.40113e+06 1.526e+06 1100 1100 1.526e+06 1.65856e+06 1100 1100 3.86631e+06 4.21579e+06 3.608e+06 3.92313e+06 4.21579e+06 4.58184e+06 3.92313e+06 4.25321e+06 3.608e+06 3.92313e+06 2.86901e+06 3.11338e+06 3.92313e+06 4.25321e+06 3.11338e+06 3.36936e+06 4.58184e+06 4.96304e+06 4.25321e+06 4.59695e+06 4.96304e+06 5.35787e+06 4.59695e+06 4.95299e+06 4.25321e+06 4.59695e+06 3.36936e+06 3.63592e+06 4.59695e+06 4.95299e+06 3.63592e+06 3.91202e+06 2.86901e+06 3.11338e+06 1.65856e+06 1.79832e+06 3.11338e+06 3.36936e+06 1.79832e+06 1.9447e+06 1.65856e+06 1.79832e+06 1100 1100 1.79832e+06 1.9447e+06 1100 1100 3.36936e+06 3.63592e+06 1.9447e+06 2.09714e+06 3.63592e+06 3.91202e+06 2.09714e+06 2.25504e+06 1.9447e+06 2.09714e+06 1100 1100 2.09714e+06 2.25504e+06 1100 1100 1100 1100 2.46594e+06 2.67114e+06 1100 1100 2.67114e+06 2.88161e+06 2.46594e+06 2.67114e+06 4.15039e+06 4.48497e+06 2.67114e+06 2.88161e+06 4.48497e+06 4.82815e+06 1100 1100 2.88161e+06 3.09654e+06 1100 1100 3.09654e+06 3.31506e+06 2.88161e+06 3.09654e+06 4.82815e+06 5.1786e+06 3.09654e+06 3.31506e+06 5.1786e+06 5.53492e+06 4.15039e+06 4.48497e+06 5.10115e+06 5.49987e+06 4.48497e+06 4.82815e+06 5.49987e+06 5.90884e+06 5.10115e+06 5.49987e+06 5.35787e+06 5.76478e+06 5.49987e+06 5.90884e+06 5.76478e+06 6.18216e+06 4.82815e+06 5.1786e+06 5.90884e+06 6.32647e+06 5.1786e+06 5.53492e+06 6.32647e+06 6.7511e+06 5.90884e+06 6.32647e+06 6.18216e+06 6.60837e+06 6.32647e+06 6.7511e+06 6.60837e+06 7.04172e+06 1100 1100 3.31506e+06 3.53633e+06 1100 1100 3.53633e+06 3.75946e+06 3.31506e+06 3.53633e+06 5.53492e+06 5.8957e+06 3.53633e+06 3.75946e+06 5.8957e+06 6.25953e+06 1100 1100 3.75946e+06 3.98358e+06 1100 1100 3.98358e+06 4.2078e+06 3.75946e+06 3.98358e+06 6.25953e+06 6.62496e+06 3.98358e+06 4.2078e+06 6.62496e+06 6.99056e+06 5.53492e+06 5.8957e+06 6.7511e+06 7.18104e+06 5.8957e+06 6.25953e+06 7.18104e+06 7.61462e+06 6.7511e+06 7.18104e+06 7.04172e+06 7.4805e+06 7.18104e+06 7.61462e+06 7.4805e+06 7.92299e+06 6.25953e+06 6.62496e+06 7.61462e+06 8.05011e+06 6.62496e+06 6.99056e+06 8.05011e+06 8.48579e+06 7.61462e+06 8.05011e+06 7.92299e+06 8.36742e+06 8.05011e+06 8.48579e+06 8.36742e+06 8.81206e+06 5.35787e+06 5.76478e+06 4.95299e+06 5.31991e+06 5.76478e+06 6.18216e+06 5.31991e+06 5.69628e+06 4.95299e+06 5.31991e+06 3.91202e+06 4.19656e+06 5.31991e+06 5.69628e+06 4.19656e+06 4.48843e+06 6.18216e+06 6.60837e+06 5.69628e+06 6.08061e+06 6.60837e+06 7.04172e+06 6.08061e+06 6.47137e+06 5.69628e+06 6.08061e+06 4.48843e+06 4.78646e+06 6.08061e+06 6.47137e+06 4.78646e+06 5.0895e+06 3.91202e+06 4.19656e+06 2.25504e+06 2.41776e+06 4.19656e+06 4.48843e+06 2.41776e+06 2.58467e+06 2.25504e+06 2.41776e+06 1100 1100 2.41776e+06 2.58467e+06 1100 1100 4.48843e+06 4.78646e+06 2.58467e+06 2.75511e+06 4.78646e+06 5.0895e+06 2.75511e+06 2.92841e+06 2.58467e+06 2.75511e+06 1100 1100 2.75511e+06 2.92841e+06 1100 1100 7.04172e+06 7.4805e+06 6.47137e+06 6.86704e+06 7.4805e+06 7.92299e+06 6.86704e+06 7.26604e+06 6.47137e+06 6.86704e+06 5.0895e+06 5.39633e+06 6.86704e+06 7.26604e+06 5.39633e+06 5.70574e+06 7.92299e+06 8.36742e+06 7.26604e+06 7.66681e+06 8.36742e+06 8.81206e+06 7.66681e+06 8.06775e+06 7.26604e+06 7.66681e+06 5.70574e+06 6.01653e+06 7.66681e+06 8.06775e+06 6.01653e+06 6.32745e+06 5.0895e+06 5.39633e+06 2.92841e+06 3.10387e+06 5.39633e+06 5.70574e+06 3.10387e+06 3.28082e+06 2.92841e+06 3.10387e+06 1100 1100 3.10387e+06 3.28082e+06 1100 1100 5.70574e+06 6.01653e+06 3.28082e+06 3.45855e+06 6.01653e+06 6.32745e+06 3.45855e+06 3.63636e+06 3.28082e+06 3.45855e+06 1100 1100 3.45855e+06 3.63636e+06 1100 1100 1100 1100 4.2078e+06 4.43123e+06 1100 1100 4.43123e+06 4.653e+06 4.2078e+06 4.43123e+06 6.99056e+06 7.35489e+06 4.43123e+06 4.653e+06 7.35489e+06 7.71649e+06 1100 1100 4.653e+06 4.87223e+06 1100 1100 4.87223e+06 5.08806e+06 4.653e+06 4.87223e+06 7.71649e+06 8.07395e+06 4.87223e+06 5.08806e+06 8.07395e+06 8.42586e+06 6.99056e+06 7.35489e+06 8.48579e+06 8.91995e+06 7.35489e+06 7.71649e+06 8.91995e+06 9.35088e+06 8.48579e+06 8.91995e+06 8.81206e+06 9.25514e+06 8.91995e+06 9.35088e+06 9.25514e+06 9.69492e+06 7.71649e+06 8.07395e+06 9.35088e+06 9.77687e+06 8.07395e+06 8.42586e+06 9.77687e+06 1.01962e+07 9.35088e+06 9.77687e+06 9.69492e+06 1.01297e+07 9.77687e+06 1.01962e+07 1.01297e+07 1.05577e+07 1100 1100 5.08806e+06 5.29962e+06 1100 1100 5.29962e+06 5.50609e+06 5.08806e+06 5.29962e+06 8.42586e+06 8.77083e+06 5.29962e+06 5.50609e+06 8.77083e+06 9.10749e+06 1100 1100 5.50609e+06 5.70666e+06 1100 1100 5.70666e+06 5.90052e+06 5.50609e+06 5.70666e+06 9.10749e+06 9.43452e+06 5.70666e+06 5.90052e+06 9.43452e+06 9.75063e+06 8.42586e+06 8.77083e+06 1.01962e+07 1.06073e+07 8.77083e+06 9.10749e+06 1.06073e+07 1.10085e+07 1.01962e+07 1.06073e+07 1.05577e+07 1.09772e+07 1.06073e+07 1.10085e+07 1.09772e+07 1.13866e+07 9.10749e+06 9.43452e+06 1.10085e+07 1.13983e+07 9.43452e+06 9.75063e+06 1.13983e+07 1.1775e+07 1.10085e+07 1.13983e+07 1.13866e+07 1.17844e+07 1.13983e+07 1.1775e+07 1.17844e+07 1.21688e+07 8.81206e+06 9.25514e+06 8.06775e+06 8.4673e+06 9.25514e+06 9.69492e+06 8.4673e+06 8.86386e+06 8.06775e+06 8.4673e+06 6.32745e+06 6.63729e+06 8.4673e+06 8.86386e+06 6.63729e+06 6.94482e+06 9.69492e+06 1.01297e+07 8.86386e+06 9.25588e+06 1.01297e+07 1.05577e+07 9.25588e+06 9.64182e+06 8.86386e+06 9.25588e+06 6.94482e+06 7.24883e+06 9.25588e+06 9.64182e+06 7.24883e+06 7.54811e+06 6.32745e+06 6.63729e+06 3.63636e+06 3.81355e+06 6.63729e+06 6.94482e+06 3.81355e+06 3.98942e+06 3.63636e+06 3.81355e+06 1100 1100 3.81355e+06 3.98942e+06 1100 1100 6.94482e+06 7.24883e+06 3.98942e+06 4.16327e+06 7.24883e+06 7.54811e+06 4.16327e+06 4.33442e+06 3.98942e+06 4.16327e+06 1100 1100 4.16327e+06 4.33442e+06 1100 1100 1.05577e+07 1.09772e+07 9.64182e+06 1.00201e+07 1.09772e+07 1.13866e+07 1.00201e+07 1.03893e+07 9.64182e+06 1.00201e+07 7.54811e+06 7.84149e+06 1.00201e+07 1.03893e+07 7.84149e+06 8.1278e+06 1.13866e+07 1.17844e+07 1.03893e+07 1.0748e+07 1.17844e+07 1.21688e+07 1.0748e+07 1.10947e+07 1.03893e+07 1.0748e+07 8.1278e+06 8.40593e+06 1.0748e+07 1.10947e+07 8.40593e+06 8.67476e+06 7.54811e+06 7.84149e+06 4.33442e+06 4.5022e+06 7.84149e+06 8.1278e+06 4.5022e+06 4.66594e+06 4.33442e+06 4.5022e+06 1100 1100 4.5022e+06 4.66594e+06 1100 1100 8.1278e+06 8.40593e+06 4.66594e+06 4.82499e+06 8.40593e+06 8.67476e+06 4.82499e+06 4.97873e+06 4.66594e+06 4.82499e+06 1100 1100 4.82499e+06 4.97873e+06 1100 1100 1100 1100 5.90052e+06 6.08692e+06 1100 1100 6.08692e+06 6.26513e+06 5.90052e+06 6.08692e+06 9.75063e+06 1.00546e+07 6.08692e+06 6.26513e+06 1.00546e+07 1.03451e+07 1100 1100 6.26513e+06 6.43443e+06 1100 1100 6.43443e+06 6.59415e+06 6.26513e+06 6.43443e+06 1.03451e+07 1.06212e+07 6.43443e+06 6.59415e+06 1.06212e+07 1.08816e+07 9.75063e+06 1.00546e+07 1.1775e+07 1.21372e+07 1.00546e+07 1.03451e+07 1.21372e+07 1.24834e+07 1.1775e+07 1.21372e+07 1.21688e+07 1.25385e+07 1.21372e+07 1.24834e+07 1.25385e+07 1.28918e+07 1.03451e+07 1.06212e+07 1.24834e+07 1.28124e+07 1.06212e+07 1.08816e+07 1.28124e+07 1.31228e+07 1.24834e+07 1.28124e+07 1.28918e+07 1.32276e+07 1.28124e+07 1.31228e+07 1.32276e+07 1.35443e+07 1100 1100 6.59415e+06 6.74368e+06 1100 1100 6.74368e+06 6.88241e+06 6.59415e+06 6.74368e+06 1.08816e+07 1.11254e+07 6.74368e+06 6.88241e+06 1.11254e+07 1.13516e+07 1100 1100 6.88241e+06 7.00981e+06 1100 1100 7.00981e+06 7.12536e+06 6.88241e+06 7.00981e+06 1.13516e+07 1.155